[Molden Format]
[GEOCONV]
energy
  -16490.209797140000     
  -16490.215002530000     
  -16490.221165060000     
  -16490.225768569999     
  -16490.229316940000     
  -16490.231103980001     
  -16490.233073269999     
  -16490.236708299999     
  -16490.239495880000     
  -16490.243018090001     
  -16490.246633930001     
  -16490.249681519999     
  -16490.250886189999     
  -16490.251874130001     
  -16490.252630409999     
  -16490.253259590001     
  -16490.254076090001     
  -16490.255238980000     
  -16490.257356700000     
  -16490.260063009999     
  -16490.261811029999     
  -16490.262035650001     
  -16490.262107340001     
  -16490.262037000000     
  -16490.262098840001     
  -16490.262167120000     
  -16490.262255109999     
  -16490.262350670000     
  -16490.262491720001     
  -16490.263487370001     
max-force
   6.9704989999999994E-002
   4.3548799999999999E-002
   2.4009340000000001E-002
   4.1693510000000003E-002
   2.6408000000000001E-002
   3.4890959999999999E-002
   4.6386669999999998E-002
   2.0412989999999999E-002
   2.2431560000000000E-002
   2.1839780000000000E-002
   2.5080450000000001E-002
   3.0562329999999999E-002
   4.0083489999999999E-002
   2.0145550000000002E-002
   2.2051580000000001E-002
   1.6724630000000001E-002
   1.1132889999999999E-002
   1.3836620000000001E-002
   1.8436439999999998E-002
   1.9071689999999999E-002
   2.1785610000000000E-002
   1.8785619999999999E-002
   1.1894530000000000E-002
   8.0669599999999998E-003
   7.2999800000000002E-003
   3.6692600000000001E-003
   3.8902899999999998E-003
   3.9987499999999997E-003
   4.1561699999999998E-003
   9.0284800000000002E-003
rms-force
   1.3389230000000000E-002
   8.8436499999999998E-003
   6.7445800000000000E-003
   7.5787199999999997E-003
   6.8290599999999996E-003
   7.6146499999999997E-003
   7.8908799999999994E-003
   5.3158299999999997E-003
   5.4980200000000002E-003
   6.0036200000000003E-003
   6.3077699999999999E-003
   5.8073800000000000E-003
   5.6855800000000000E-003
   4.4641300000000002E-003
   3.7209399999999998E-003
   3.4650000000000002E-003
   2.7919899999999998E-003
   3.2144200000000000E-003
   3.9532800000000000E-003
   3.7388500000000002E-003
   5.4885600000000000E-003
   3.9082900000000000E-003
   2.6254000000000000E-003
   2.0746599999999999E-003
   1.6750300000000001E-003
   1.4098400000000001E-003
   1.2865600000000000E-003
   1.2478000000000001E-003
   1.1944900000000001E-003
   3.3413200000000001E-003
[GEOMETRIES]
  387
  
      O         0.3813097400E+01         0.5949939770E+01         0.1294401630E+02
      O         0.6132551030E+01         0.4195339240E+01         0.1298037504E+02
     Ti         0.6299824120E+01         0.6047654690E+01         0.1301541783E+02
      O         0.8144842530E+01         0.2077802660E+01         0.1306420815E+02
      O         0.1221223703E+02         0.1415303238E+02         0.1307470072E+02
      O         0.9029499000E-01         0.1409885339E+02         0.1307986962E+02
      O         0.4142570230E+01         0.2037112680E+01         0.1308009467E+02
      O         0.1606630476E+02         0.6052000580E+01         0.1308034764E+02
      O         0.8167227570E+01         0.1416550656E+02         0.1308043613E+02
      O         0.1009414378E+02         0.4152429260E+01         0.1308075810E+02
      O         0.2066503280E+01         0.1604544027E+02         0.1308199520E+02
      O         0.1012768943E+02         0.1219906331E+02         0.1308272520E+02
      O         0.1012240766E+02         0.1079886300E+00         0.1308411241E+02
      O         0.2061047550E+01         0.1200650361E+02         0.1308455891E+02
      O         0.1963989050E+01         0.3925452780E+01         0.1308527297E+02
      O         0.1009464865E+02         0.8148090820E+01         0.1308598513E+02
      O         0.6092977820E+01         0.7287627000E-01         0.1308859478E+02
      O         0.8162037700E+01         0.1012583138E+02         0.1308885714E+02
      O         0.1218110733E+02         0.2058744260E+01         0.1308919838E+02
      O         0.6107498600E+01         0.1217583571E+02         0.1309239749E+02
      O         0.4157714440E+01         0.1008529056E+02         0.1309346423E+02
      O         0.5687916000E-01         0.1986227650E+01         0.1309437097E+02
      O         0.1205954164E+02         0.6103919990E+01         0.1309460521E+02
      O         0.4131132620E+01         0.1411054851E+02         0.1309493589E+02
      O         0.7045284000E-01         0.1008121846E+02         0.1309875787E+02
      O         0.1412478726E+02         0.8176331860E+01         0.1309937599E+02
      O         0.1216354478E+02         0.1011636768E+02         0.1309953678E+02
      O         0.1414685085E+02         0.7243871000E-01         0.1310505054E+02
      O         0.1413852905E+02         0.1214390522E+02         0.1310552574E+02
      O         0.1410749395E+02         0.4140306480E+01         0.1311464939E+02
      O         0.1988712550E+01         0.8014903670E+01         0.1311566507E+02
      O         0.8081835510E+01         0.6130731480E+01         0.1316526598E+02
     Ti         0.1870905260E+01         0.2124471300E+01         0.1320147849E+02
     Ti         0.9973348190E+01         0.1400318623E+02         0.1320455763E+02
     Ti         0.9973498960E+01         0.1908319530E+01         0.1320496459E+02
     Ti         0.1911319410E+01         0.1423023337E+02         0.1320676201E+02
     Ti         0.5949118680E+01         0.1872036990E+01         0.1320848718E+02
     Ti         0.1874884680E+01         0.1018869758E+02         0.1321000596E+02
     Ti         0.2010418960E+01         0.6183274670E+01         0.1321057369E+02
     Ti         0.9984124180E+01         0.9962503940E+01         0.1321343420E+02
     Ti         0.1399883420E+02         0.1885791750E+01         0.1321344534E+02
     Ti         0.5940666460E+01         0.1399054285E+02         0.1321412472E+02
     Ti         0.1401785909E+02         0.1397513408E+02         0.1321547393E+02
     Ti         0.1398432946E+02         0.9993898350E+01         0.1321651181E+02
     Ti         0.1421184453E+02         0.5946128800E+01         0.1322346908E+02
     Ti         0.1024002109E+02         0.5961544600E+01         0.1322398708E+02
      O         0.6076770620E+01         0.8152759580E+01         0.1322666152E+02
     Ti         0.5958501930E+01         0.9984993690E+01         0.1323254948E+02
     Ba         0.4036358300E+01         0.4051571250E+01         0.1493900438E+02
     Ba         0.4015113330E+01         0.8047714160E+01         0.1501287220E+02
     Ba         0.8082505050E+01         0.4012566280E+01         0.1501465933E+02
     Ba         0.1209403195E+02         0.1209484544E+02         0.1502271715E+02
     Ba         0.3996555260E+01         0.1207869099E+02         0.1503562586E+02
     Ba         0.1610628053E+02         0.1211142941E+02         0.1503772675E+02
     Ba         0.3995395670E+01         0.1611528579E+02         0.1504158676E+02
     Ba         0.1207396294E+02         0.1610878510E+02         0.1504289132E+02
     Ba         0.8066629650E+01         0.1207179673E+02         0.1504337229E+02
     Ba         0.8049916450E+01         0.1609668218E+02         0.1504395956E+02
     Ba         0.1610158155E+02         0.6388430000E-02         0.1504473119E+02
     Ba         0.1611602403E+02         0.8079805510E+01         0.1505506294E+02
     Ba         0.1211506281E+02         0.8051907510E+01         0.1505700060E+02
     Ba         0.1211951574E+02         0.4002517330E+01         0.1505709210E+02
     Ba         0.1611723217E+02         0.4029320960E+01         0.1506804502E+02
     Ba         0.8098144490E+01         0.8058678870E+01         0.1507371156E+02
      O         0.6060440500E+01         0.2051536930E+01         0.1509450577E+02
      O         0.1411554186E+02         0.1411483275E+02         0.1509830985E+02
      O         0.1007808646E+02         0.2030572950E+01         0.1510064808E+02
      O         0.1009145988E+02         0.1412122741E+02         0.1510118134E+02
      O         0.2018062530E+01         0.1411268599E+02         0.1510303920E+02
      O         0.1411335452E+02         0.2019143510E+01         0.1510351846E+02
      O         0.2016237880E+01         0.2013927090E+01         0.1510383660E+02
      O         0.2002093240E+01         0.6039832860E+01         0.1510469750E+02
      O         0.1411199704E+02         0.6064626930E+01         0.1510547330E+02
      O         0.2019055790E+01         0.1007853923E+02         0.1510618169E+02
      O         0.1008428939E+02         0.1008282798E+02         0.1510693082E+02
      O         0.6059228460E+01         0.1412411375E+02         0.1510930572E+02
      O         0.1011542108E+02         0.6061620700E+01         0.1511967010E+02
      O         0.1411070513E+02         0.1008968370E+02         0.1512323517E+02
      O         0.6019563740E+01         0.6070350000E+01         0.1512469556E+02
      O         0.6053164210E+01         0.1012924710E+02         0.1513730856E+02
     Ti         0.6082222440E+01         0.5941383790E+01         0.1699974745E+02
      O         0.6046780030E+01         0.7754714000E-01         0.1712276005E+02
      O         0.6043784670E+01         0.4092793930E+01         0.1712818763E+02
     Ti         0.6120121690E+01         0.9962276380E+01         0.1713401947E+02
      O         0.8050327100E+01         0.6054533980E+01         0.1713535284E+02
      O         0.4024234140E+01         0.2025206300E+01         0.1713541738E+02
      O         0.3990530770E+01         0.1008596703E+02         0.1713710307E+02
      O         0.2015597450E+01         0.4036269180E+01         0.1713746001E+02
      O         0.1411443429E+02         0.1129180000E-02         0.1713799196E+02
      O         0.1008124967E+02         0.1612808560E+02         0.1713823327E+02
      O         0.8063318310E+01         0.2024767080E+01         0.1713823927E+02
      O         0.1610134300E+02         0.1008380216E+02         0.1713832066E+02
      O         0.4046711680E+01         0.1412125910E+02         0.1713844779E+02
      O         0.9388980000E-02         0.1411502726E+02         0.1713866211E+02
      O         0.2014338400E+01         0.8068169400E+01         0.1713873921E+02
      O         0.1612437157E+02         0.2016836710E+01         0.1713878775E+02
      O         0.2016703240E+01         0.3896700000E-03         0.1713888588E+02
      O         0.2015335780E+01         0.1210125606E+02         0.1713889692E+02
      O         0.1411328219E+02         0.4033989630E+01         0.1713897408E+02
      O         0.8078954340E+01         0.1412103850E+02         0.1713920998E+02
      O         0.1209070327E+02         0.2014858330E+01         0.1713922262E+02
      O         0.1204813866E+02         0.1008527316E+02         0.1713925854E+02
      O         0.1411312768E+02         0.1210273996E+02         0.1713927541E+02
      O         0.1008087797E+02         0.4029459950E+01         0.1713932210E+02
      O         0.1210880059E+02         0.1411452236E+02         0.1713932386E+02
      O         0.1007969708E+02         0.1209325808E+02         0.1713988931E+02
      O         0.1612208446E+02         0.6048988560E+01         0.1714078364E+02
      O         0.4011806900E+01         0.6058550320E+01         0.1714106772E+02
      O         0.1411148188E+02         0.8070367860E+01         0.1714116153E+02
      O         0.1207795353E+02         0.6048761850E+01         0.1714417181E+02
      O         0.1007864550E+02         0.8058980070E+01         0.1714420663E+02
      O         0.6037441660E+01         0.8115966360E+01         0.1714454824E+02
      O         0.7999097970E+01         0.1009221212E+02         0.1714612420E+02
     Ti         0.6051196530E+01         0.1920349430E+01         0.1714666653E+02
      O         0.6039058630E+01         0.1215849405E+02         0.1714813652E+02
     Ti         0.2030789400E+01         0.2018631880E+01         0.1714884162E+02
     Ti         0.1013427623E+02         0.6053024040E+01         0.1714899793E+02
     Ti         0.5996327890E+01         0.1399622456E+02         0.1715310008E+02
     Ti         0.1008441952E+02         0.2021195210E+01         0.1715477565E+02
     Ti         0.2065431120E+01         0.6041331810E+01         0.1716061861E+02
     Ti         0.2100665650E+01         0.1007597609E+02         0.1716078257E+02
     Ti         0.1003938003E+02         0.1411839251E+02         0.1716215240E+02
     Ti         0.1962500840E+01         0.1411110596E+02         0.1716291836E+02
     Ti         0.1018335332E+02         0.1009632177E+02         0.1716651070E+02
     Ti         0.1422259290E+02         0.1007114394E+02         0.1716663030E+02
     Ti         0.1412218820E+02         0.1999780850E+01         0.1717312135E+02
     Ti         0.1406273985E+02         0.1409813676E+02         0.1717319193E+02
     Ti         0.1416105811E+02         0.6037067000E+01         0.1719128083E+02
     Ba         0.8065444530E+01         0.8065441280E+01         0.1913604557E+02
     Ba         0.8065444640E+01         0.1209833826E+02         0.1913606554E+02
     Ba         0.8065444010E+01         0.4032546330E+01         0.1913606557E+02
     Ba         0.4032544050E+01         0.8065441340E+01         0.1913606581E+02
     Ba         0.1209833917E+02         0.8065441320E+01         0.1913606589E+02
     Ba         0.8065444280E+01         0.1210000000E-05         0.1913607012E+02
     Ba        -0.2660000000E-05         0.8065441530E+01         0.1913607112E+02
     Ba         0.4032575230E+01         0.4032577060E+01         0.1913607810E+02
     Ba         0.1209830972E+02         0.1209830754E+02         0.1913607855E+02
     Ba         0.1209830899E+02         0.4032577080E+01         0.1913607879E+02
     Ba         0.4032573960E+01         0.1209830789E+02         0.1913607900E+02
     Ba         0.4032597310E+01         0.2400000000E-05         0.1913608559E+02
     Ba         0.1209828764E+02         0.1610000000E-05         0.1913608605E+02
     Ba        -0.6300000000E-06         0.4032599420E+01         0.1913608628E+02
     Ba        -0.2700000000E-06         0.1209828577E+02         0.1913608726E+02
     Ba        -0.3910000000E-05        -0.2020000000E-05         0.1913610068E+02
      O         0.1411451818E+02         0.2016363790E+01         0.1914702854E+02
      O         0.1411451978E+02         0.1411452047E+02         0.1914702885E+02
      O         0.2016363820E+01         0.1411451829E+02         0.1914702920E+02
      O         0.2016363220E+01         0.2016363790E+01         0.1914703034E+02
      O         0.2016368460E+01         0.6049069030E+01         0.1914703665E+02
      O         0.1008181555E+02         0.2016368910E+01         0.1914703691E+02
      O         0.2016368830E+01         0.1008181515E+02         0.1914703725E+02
      O         0.6049068850E+01         0.2016368960E+01         0.1914703772E+02
      O         0.1411451484E+02         0.6049073200E+01         0.1914703823E+02
      O         0.1411451477E+02         0.1008181096E+02         0.1914703881E+02
      O         0.1008181122E+02         0.1411451486E+02         0.1914703918E+02
      O         0.6049073360E+01         0.1411451482E+02         0.1914703931E+02
      O         0.1008180496E+02         0.6049079520E+01         0.1914705084E+02
      O         0.1008180475E+02         0.1008180492E+02         0.1914705093E+02
      O         0.6049079420E+01         0.6049079620E+01         0.1914705201E+02
      O         0.6049079500E+01         0.1008180497E+02         0.1914705518E+02
      O        -0.1211000000E-04         0.2016366810E+01         0.2116689805E+02
      O         0.2016365890E+01        -0.1117000000E-04         0.2116689808E+02
      O         0.1411451603E+02        -0.4860000000E-05         0.2116689837E+02
      O        -0.5590000000E-05         0.1411451627E+02         0.2116689846E+02
      O         0.1411452175E+02         0.8065442770E+01         0.2116690345E+02
      O         0.8065442240E+01         0.1411452164E+02         0.2116690357E+02
      O         0.2016360370E+01         0.8065442190E+01         0.2116690383E+02
      O         0.8065442230E+01         0.2016360630E+01         0.2116690399E+02
      O        -0.4600000000E-06         0.6049076740E+01         0.2116690650E+02
      O         0.6049076640E+01         0.0000000000E+00         0.2116690661E+02
      O        -0.2200000000E-06         0.1008180674E+02         0.2116690663E+02
      O         0.1008180671E+02         0.0000000000E+00         0.2116690680E+02
      O         0.8065442340E+01         0.6049091160E+01         0.2116691348E+02
      O         0.1008179413E+02         0.8065443030E+01         0.2116691352E+02
      O         0.6049090590E+01         0.8065443460E+01         0.2116691516E+02
      O         0.8065441130E+01         0.1008179460E+02         0.2116691553E+02
      O         0.6049096770E+01         0.1209811354E+02         0.2116698000E+02
      O         0.4032771990E+01         0.1008178687E+02         0.2116698046E+02
      O         0.1008178659E+02         0.4032770090E+01         0.2116698073E+02
      O         0.1008178678E+02         0.1209811426E+02         0.2116698078E+02
      O         0.6049096880E+01         0.4032769950E+01         0.2116698087E+02
      O         0.1209811346E+02         0.1008178717E+02         0.2116698121E+02
      O         0.1209811366E+02         0.6049097330E+01         0.2116698123E+02
      O         0.4032771070E+01         0.6049097570E+01         0.2116698141E+02
      O         0.1411450215E+02         0.4032754710E+01         0.2116699324E+02
      O         0.1411450209E+02         0.1209813051E+02         0.2116699366E+02
      O         0.4032756030E+01         0.1411450225E+02         0.2116699393E+02
      O         0.1209812949E+02         0.1411450211E+02         0.2116699409E+02
      O         0.2016382640E+01         0.4032756110E+01         0.2116699572E+02
      O         0.2016382860E+01         0.1209812901E+02         0.2116699581E+02
      O         0.1209812814E+02         0.2016381950E+01         0.2116699636E+02
      O         0.4032757030E+01         0.2016381800E+01         0.2116699647E+02
     Ti         0.1008176832E+02         0.1411448502E+02         0.2116744531E+02
     Ti         0.1411448379E+02         0.6049114670E+01         0.2116744548E+02
     Ti         0.1411448389E+02         0.1008176834E+02         0.2116744590E+02
     Ti         0.6049115530E+01         0.1411448566E+02         0.2116744596E+02
     Ti         0.1008176922E+02         0.2016396250E+01         0.2116744630E+02
     Ti         0.2016396620E+01         0.1008176969E+02         0.2116744663E+02
     Ti         0.2016397200E+01         0.6049114760E+01         0.2116744684E+02
     Ti         0.6049115910E+01         0.2016396700E+01         0.2116744711E+02
     Ti         0.6049131790E+01         0.1008175133E+02         0.2116745614E+02
     Ti         0.1008175149E+02         0.1008175203E+02         0.2116745903E+02
     Ti         0.1008175090E+02         0.6049130630E+01         0.2116745969E+02
     Ti         0.1411448407E+02         0.1411448460E+02         0.2116745973E+02
     Ti         0.1411448687E+02         0.2016399690E+01         0.2116745989E+02
     Ti         0.2016400330E+01         0.1411448794E+02         0.2116746005E+02
     Ti         0.2016403220E+01         0.2016401230E+01         0.2116746068E+02
     Ti         0.6049131630E+01         0.6049130820E+01         0.2116746120E+02
      O         0.6049087370E+01         0.1008179686E+02         0.2318677618E+02
      O         0.6049093660E+01         0.6049093620E+01         0.2318680349E+02
      O         0.1008179006E+02         0.6049093540E+01         0.2318680412E+02
      O         0.1008179005E+02         0.1008179089E+02         0.2318680462E+02
      O         0.1411451551E+02         0.1411451561E+02         0.2318680923E+02
      O         0.1008179366E+02         0.2016372510E+01         0.2318680982E+02
      O         0.6049090530E+01         0.2016372600E+01         0.2318680994E+02
      O         0.1411451224E+02         0.2016368930E+01         0.2318681007E+02
      O         0.2016373280E+01         0.6049090480E+01         0.2318681024E+02
      O         0.2016369630E+01         0.1411451219E+02         0.2318681026E+02
      O         0.1411451141E+02         0.6049088700E+01         0.2318681032E+02
      O         0.1411451123E+02         0.1008179520E+02         0.2318681049E+02
      O         0.2016373370E+01         0.1008179393E+02         0.2318681049E+02
      O         0.2016371960E+01         0.2016371500E+01         0.2318681075E+02
      O         0.6049089290E+01         0.1411451125E+02         0.2318681077E+02
      O         0.1008179495E+02         0.1411451128E+02         0.2318681085E+02
     Ba        -0.2280000000E-05         0.1860000000E-05         0.2319831769E+02
     Ba         0.1209833542E+02         0.1580000000E-05         0.2319834568E+02
     Ba        -0.3070000000E-05         0.1209833106E+02         0.2319834690E+02
     Ba        -0.3030000000E-05         0.4032553630E+01         0.2319834734E+02
     Ba         0.4032549230E+01         0.1490000000E-05         0.2319834779E+02
     Ba         0.8065444710E+01         0.1110000000E-05         0.2319836765E+02
     Ba        -0.4180000000E-05         0.8065441220E+01         0.2319836832E+02
     Ba         0.1209834012E+02         0.1209833544E+02         0.2319837091E+02
     Ba         0.1209833947E+02         0.4032549440E+01         0.2319837122E+02
     Ba         0.4032545060E+01         0.4032548990E+01         0.2319837253E+02
     Ba         0.4032544320E+01         0.1209833578E+02         0.2319837269E+02
     Ba         0.1209834408E+02         0.8065440880E+01         0.2319839305E+02
     Ba         0.8065445730E+01         0.1209833995E+02         0.2319839317E+02
     Ba         0.8065444990E+01         0.4032544330E+01         0.2319839341E+02
     Ba         0.4032539660E+01         0.8065441010E+01         0.2319839446E+02
     Ba         0.8065445960E+01         0.8065440980E+01         0.2319841879E+02
     Ti         0.6049108940E+01         0.1008177165E+02         0.2517439690E+02
     Ti         0.1008176942E+02         0.1008177130E+02         0.2517439798E+02
     Ti         0.6049098850E+01         0.1411449306E+02         0.2517439883E+02
     Ti         0.2016385840E+01         0.6049095420E+01         0.2517439892E+02
     Ti         0.2016387060E+01         0.1008178285E+02         0.2517440020E+02
     Ti         0.1411449346E+02         0.1008178186E+02         0.2517440057E+02
     Ti         0.1008178188E+02         0.1411449451E+02         0.2517440082E+02
     Ti         0.1008178121E+02         0.2016384550E+01         0.2517440142E+02
     Ti         0.1411449352E+02         0.6049097230E+01         0.2517440184E+02
     Ti         0.1008176997E+02         0.6049108880E+01         0.2517440206E+02
     Ti         0.6049095830E+01         0.2016385270E+01         0.2517440216E+02
     Ti         0.6049110260E+01         0.6049110480E+01         0.2517440469E+02
     Ti         0.1411450383E+02         0.1411450352E+02         0.2517442505E+02
     Ti         0.2016373670E+01         0.1411450535E+02         0.2517442703E+02
     Ti         0.1411450380E+02         0.2016372340E+01         0.2517442940E+02
     Ti         0.2016373880E+01         0.2016372420E+01         0.2517443049E+02
      O         0.6049092160E+01         0.8065442230E+01         0.2519549973E+02
      O         0.8065442340E+01         0.1008179258E+02         0.2519550013E+02
      O         0.8065441240E+01         0.6049091890E+01         0.2519550014E+02
      O         0.1008179229E+02         0.8065442190E+01         0.2519550025E+02
      O         0.1411452012E+02         0.8065442190E+01         0.2519551118E+02
      O         0.8065441290E+01         0.1411451961E+02         0.2519551148E+02
      O         0.8065441600E+01         0.2016362560E+01         0.2519551179E+02
      O         0.2016363030E+01         0.8065442190E+01         0.2519551180E+02
      O         0.1150000000E-05         0.2016373640E+01         0.2519551587E+02
      O         0.6049089640E+01        -0.8400000000E-06         0.2519551595E+02
      O        -0.3000000000E-06         0.6049089530E+01         0.2519551595E+02
      O         0.2016374270E+01         0.9400000000E-06         0.2519551597E+02
      O        -0.8300000000E-06         0.1008179482E+02         0.2519551601E+02
      O         0.1008179428E+02        -0.9000000000E-06         0.2519551612E+02
      O         0.1008180271E+02         0.4032730170E+01         0.2519551682E+02
      O         0.6049080890E+01         0.4032730280E+01         0.2519551695E+02
      O         0.1411451477E+02         0.4032736890E+01         0.2519551709E+02
      O         0.1411451502E+02         0.1209814955E+02         0.2519551710E+02
      O         0.1008180266E+02         0.1209815476E+02         0.2519551716E+02
      O         0.4032737280E+01         0.1411451422E+02         0.2519551728E+02
      O         0.6049081100E+01         0.1209815460E+02         0.2519551733E+02
      O         0.1209815438E+02         0.6049081000E+01         0.2519551734E+02
      O         0.1209814896E+02         0.1411451506E+02         0.2519551735E+02
      O         0.1209815422E+02         0.1008180306E+02         0.2519551754E+02
      O         0.2016368660E+01         0.4032736930E+01         0.2519551769E+02
      O         0.2016368620E+01         0.1209814912E+02         0.2519551773E+02
      O         0.1209814905E+02         0.2016367930E+01         0.2519551777E+02
      O         0.4032730860E+01         0.6049081270E+01         0.2519551780E+02
      O         0.4032736990E+01         0.2016368200E+01         0.2519551782E+02
      O         0.4032731130E+01         0.1008180242E+02         0.2519551821E+02
      O         0.1050000000E-05         0.1411451199E+02         0.2519551936E+02
      O         0.1411451187E+02         0.0000000000E+00         0.2519551955E+02
      O         0.2016375430E+01         0.6049075360E+01         0.2723561236E+02
      O         0.1411450502E+02         0.6049075560E+01         0.2723561322E+02
      O         0.6049075590E+01         0.1411450565E+02         0.2723561328E+02
      O         0.2016375910E+01         0.1008180858E+02         0.2723561400E+02
      O         0.1411450524E+02         0.1008180819E+02         0.2723561404E+02
      O         0.1008180850E+02         0.2016374770E+01         0.2723561426E+02
      O         0.1008180839E+02         0.1411450565E+02         0.2723561459E+02
      O         0.6049075220E+01         0.2016375290E+01         0.2723561601E+02
      O         0.2016376490E+01         0.2016376510E+01         0.2723561780E+02
      O         0.1411450585E+02         0.1411450573E+02         0.2723561857E+02
      O         0.1411450585E+02         0.2016376560E+01         0.2723561917E+02
      O         0.2016376360E+01         0.1411450591E+02         0.2723561934E+02
      O         0.1008181004E+02         0.1008181118E+02         0.2723563097E+02
      O         0.6049072600E+01         0.6049073590E+01         0.2723563216E+02
      O         0.1008181012E+02         0.6049073330E+01         0.2723563296E+02
      O         0.6049073240E+01         0.1008181037E+02         0.2723563434E+02
     Ba        -0.1950000000E-05         0.0000000000E+00         0.2732030606E+02
     Ba        -0.1670000000E-05         0.4032607520E+01         0.2732033198E+02
     Ba         0.1209828074E+02         0.1020000000E-05         0.2732033238E+02
     Ba        -0.9800000000E-06         0.1209827643E+02         0.2732033353E+02
     Ba         0.4032603400E+01         0.5300000000E-06         0.2732033391E+02
     Ba         0.1209828564E+02         0.4032602940E+01         0.2732036282E+02
     Ba        -0.1540000000E-05         0.8065442190E+01         0.2732036347E+02
     Ba         0.4032597960E+01         0.4032601380E+01         0.2732036370E+02
     Ba         0.1209828632E+02         0.1209828119E+02         0.2732036399E+02
     Ba         0.8065444550E+01         0.1520000000E-05         0.2732036485E+02
     Ba         0.4032596740E+01         0.1209828253E+02         0.2732036497E+02
     Ba         0.1209829268E+02         0.8065441540E+01         0.2732039847E+02
     Ba         0.8065444320E+01         0.4032595070E+01         0.2732039900E+02
     Ba         0.4032589490E+01         0.8065442190E+01         0.2732039912E+02
     Ba         0.8065444500E+01         0.1209828879E+02         0.2732040010E+02
     Ba         0.8065445760E+01         0.8065442190E+01         0.2732042980E+02
     Ti         0.1411454046E+02         0.1411454022E+02         0.2911206014E+02
     Ti         0.2016339060E+01         0.2016339970E+01         0.2911206025E+02
     Ti         0.2016339260E+01         0.1411454098E+02         0.2911206399E+02
     Ti         0.1411454116E+02         0.2016339800E+01         0.2911206505E+02
     Ti         0.6049067530E+01         0.1411453405E+02         0.2911211985E+02
     Ti         0.2016345860E+01         0.6049067480E+01         0.2911212110E+02
     Ti         0.2016347890E+01         0.1008181050E+02         0.2911212212E+02
     Ti         0.1411453277E+02         0.6049068100E+01         0.2911212254E+02
     Ti         0.1411453418E+02         0.1008181016E+02         0.2911212327E+02
     Ti         0.1008181099E+02         0.2016348510E+01         0.2911212375E+02
     Ti         0.1008181102E+02         0.1411453302E+02         0.2911212482E+02