[Molden Format]
[GEOCONV]
energy
  -9414.7798033399995     
  -9414.7798863999997     
  -9414.7799849000003     
  -9414.7799816999996     
  -9414.7799484200004     
  -9414.7799699900006     
max-force
   2.9871600000000000E-003
   2.2883999999999999E-003
   2.0536299999999999E-003
   1.6368800000000001E-003
   1.5780099999999999E-003
   1.2073800000000001E-003
rms-force
   1.1754400000000000E-003
   7.9537000000000000E-004
   5.0075000000000000E-004
   4.2162999999999999E-004
   3.8529999999999999E-004
   2.7587000000000000E-004
[GEOMETRIES]
  211
  
      H         0.1209924632E+02         0.1718088240E+01         0.9852098330E+01
      H         0.1213361337E+02         0.2416419020E+01         0.1123048240E+02
      O         0.1209814926E+02         0.2600013150E+01         0.1026280667E+02
      O         0.1206679096E+02         0.2024026130E+01         0.1307280759E+02
      O         0.1209011884E+02         0.1008287736E+02         0.1311702182E+02
      O         0.1011979065E+02         0.8019599620E+01         0.1310370076E+02
      O         0.1208889066E+02         0.6049251460E+01         0.1312271667E+02
      O         0.1010622003E+02         0.3996760940E+01         0.1313128758E+02
      O         0.1208852523E+02         0.1411614964E+02         0.1311375297E+02
      O         0.1415294956E+02         0.1205293305E+02         0.1310007302E+02
      O         0.2053879830E+01         0.1205265542E+02         0.1310332302E+02
      O         0.1612216456E+02         0.1008274112E+02         0.1311628454E+02
      O         0.4022701670E+01         0.1008276586E+02         0.1311635223E+02
      O         0.1414965888E+02         0.1608746586E+02         0.1309039318E+02
      O         0.4027479980E+01         0.2017815130E+01         0.1311962852E+02
      O         0.8055743850E+01         0.1008269256E+02         0.1311678583E+02
      O         0.8060903890E+01         0.2018429310E+01         0.1311984279E+02
      O         0.2053932520E+01         0.8018369790E+01         0.1310349769E+02
      O         0.1011893680E+02         0.1205064226E+02         0.1310050764E+02
      O         0.6085801390E+01         0.8019554000E+01         0.1310264439E+02
      O         0.2055545260E+01         0.3985757040E+01         0.1310632336E+02
      O         0.1415313168E+02         0.8017671390E+01         0.1310239805E+02
      O         0.6086285880E+01         0.1205201321E+02         0.1310277275E+02
      O         0.1011223401E+02         0.1608008281E+02         0.1310094753E+02
      O         0.6086617920E+01         0.3984987150E+01         0.1310567387E+02
      O         0.8055165960E+01         0.1411429567E+02         0.1311615780E+02
      O         0.4023840300E+01         0.1411592856E+02         0.1311637506E+02
      O         0.1612818149E+02         0.2017656510E+01         0.1311552787E+02
      O         0.8054336140E+01         0.6050523060E+01         0.1312039817E+02
      O         0.2054927570E+01         0.1608643676E+02         0.1310571405E+02
      O         0.1415482112E+02         0.3984983610E+01         0.1311053390E+02
      O         0.6087965050E+01         0.1608643845E+02         0.1310662796E+02
      O         0.1612202170E+02         0.1411648413E+02         0.1311571875E+02
      O         0.4023110300E+01         0.6049367810E+01         0.1311831292E+02
      O         0.1612264712E+02         0.6049454550E+01         0.1311954614E+02
     Ti         0.1027673196E+02         0.6210473600E+01         0.1323054992E+02
     Ti         0.1027654100E+02         0.1024246944E+02         0.1322987877E+02
     Ti         0.1023331547E+02         0.2190662060E+01         0.1322963089E+02
     Ti         0.1430828886E+02         0.1024392785E+02         0.1322952334E+02
     Ti         0.1430802604E+02         0.1427744988E+02         0.1322757305E+02
     Ti         0.1027249020E+02         0.1427597908E+02         0.1322969694E+02
     Ti         0.2208761850E+01         0.1024420800E+02         0.1323086428E+02
     Ti         0.2212253940E+01         0.2177829040E+01         0.1323202589E+02
     Ti         0.1432019599E+02         0.2177030610E+01         0.1321814061E+02
     Ti         0.6242460750E+01         0.1024375227E+02         0.1323056340E+02
     Ti         0.2210002090E+01         0.1427774616E+02         0.1323095905E+02
     Ti         0.6242077530E+01         0.1427761843E+02         0.1323114478E+02
     Ti         0.1430845105E+02         0.6208491910E+01         0.1322689730E+02
     Ti         0.6241907090E+01         0.6211528410E+01         0.1323111538E+02
     Ti         0.6237726290E+01         0.2179504950E+01         0.1323506693E+02
     Ti         0.2208700270E+01         0.6209815430E+01         0.1323153902E+02
     Ba         0.8167592680E+01         0.8139711600E+01         0.1506524142E+02
     Ba         0.1220066561E+02         0.8138656930E+01         0.1506567199E+02
     Ba         0.1219879510E+02         0.4099457870E+01         0.1506309914E+02
     Ba         0.8167740380E+01         0.1217512651E+02         0.1506569641E+02
     Ba         0.1220025853E+02         0.1217742584E+02         0.1506516372E+02
     Ba         0.4132749340E+01         0.1217595684E+02         0.1506588816E+02
     Ba         0.8165903830E+01         0.7391604000E-01         0.1507264165E+02
     Ba         0.4131761940E+01         0.8139902540E+01         0.1506513324E+02
     Ba         0.8159815830E+01         0.4112146420E+01         0.1508018720E+02
     Ba         0.4132989880E+01         0.7580201000E-01         0.1507108099E+02
     Ba         0.1219632511E+02         0.8343541000E-01         0.1505509813E+02
     Ba         0.9922613000E-01         0.1217718953E+02         0.1506678107E+02
     Ba         0.4131072210E+01         0.4106624560E+01         0.1507127806E+02
     Ba         0.9838612000E-01         0.8138880540E+01         0.1506570294E+02
     Ba         0.9948197000E-01         0.7601412000E-01         0.1507082194E+02
     Ba         0.9839485000E-01         0.4104638480E+01         0.1507052896E+02
      O         0.1420692715E+02         0.1015238998E+02         0.1513060262E+02
      O         0.1017061041E+02         0.2081662480E+01         0.1512420588E+02
      O         0.1017347206E+02         0.6124043580E+01         0.1513598597E+02
      O         0.1017437337E+02         0.1015205204E+02         0.1513167973E+02
      O         0.2108036230E+01         0.1015211862E+02         0.1513249517E+02
      O         0.1420461545E+02         0.1418746076E+02         0.1512644014E+02
      O         0.1017243438E+02         0.1418333147E+02         0.1513124524E+02
      O         0.6140974250E+01         0.1015191385E+02         0.1513258621E+02
      O         0.2108746110E+01         0.2085494790E+01         0.1513205081E+02
      O         0.1419964957E+02         0.2079427630E+01         0.1512091191E+02
      O         0.6140763360E+01         0.1418347644E+02         0.1513220230E+02
      O         0.6140080780E+01         0.2086825820E+01         0.1513177490E+02
      O         0.6138832660E+01         0.6120504770E+01         0.1513417654E+02
      O         0.1420598121E+02         0.6118838060E+01         0.1513169441E+02
      O         0.2108531770E+01         0.1418387501E+02         0.1513141973E+02
      O         0.2108120980E+01         0.6119405570E+01         0.1513401513E+02
     Ti         0.1007904065E+02         0.1006677129E+02         0.1716105337E+02
     Ti         0.6045745080E+01         0.1006669474E+02         0.1716097000E+02
     Ti         0.1007986280E+02         0.2001885430E+01         0.1716643551E+02
     Ti         0.2012297380E+01         0.1006688960E+02         0.1716148531E+02
     Ti         0.6046122130E+01         0.2001613380E+01         0.1716652806E+02
     Ti         0.1007944452E+02         0.6034856150E+01         0.1716007920E+02
     Ti         0.1411096693E+02         0.1006690460E+02         0.1716154984E+02
     Ti         0.1008043105E+02         0.1409931316E+02         0.1716148905E+02
     Ti         0.6044082260E+01         0.6036385770E+01         0.1716325307E+02
     Ti         0.2013636040E+01         0.2001279700E+01         0.1716379915E+02
     Ti         0.2013854310E+01         0.1409912438E+02         0.1716306768E+02
     Ti         0.6047295250E+01         0.1409832292E+02         0.1716283882E+02
     Ti         0.2011826300E+01         0.6034420720E+01         0.1716252066E+02
     Ti         0.1410993221E+02         0.6033033320E+01         0.1715974649E+02
     Ti         0.1411031764E+02         0.1410180188E+02         0.1716173519E+02
     Ti         0.1411122085E+02         0.2000784090E+01         0.1716072685E+02
      O         0.8229231930E+01         0.1019879107E+02         0.1716345799E+02
      O         0.8228576350E+01         0.2135236800E+01         0.1716345987E+02
      O         0.1021342270E+02         0.8217655800E+01         0.1716587559E+02
      O         0.1021385345E+02         0.1528401900E+00         0.1716379268E+02
      O         0.2146771700E+01         0.8217444040E+01         0.1716520417E+02
      O         0.2148894840E+01         0.1514986000E+00         0.1716521602E+02
      O         0.1424549302E+02         0.8217551600E+01         0.1716397622E+02
      O         0.6181217470E+01         0.1521876000E+00         0.1716555992E+02
      O         0.1620899500E+00         0.2134102100E+01         0.1716126863E+02
      O         0.4196408520E+01         0.1019839778E+02         0.1716379008E+02
      O         0.8228681910E+01         0.1423139883E+02         0.1716420483E+02
      O         0.6178424700E+01         0.4185530990E+01         0.1716684479E+02
      O         0.1629889000E+00         0.1019979520E+02         0.1716403624E+02
      O         0.1633496400E+00         0.1423204226E+02         0.1716239899E+02
      O         0.6180016060E+01         0.8216829820E+01         0.1716553775E+02
      O         0.1226173145E+02         0.1019965516E+02         0.1716372093E+02
      O         0.1021449874E+02         0.1224987189E+02         0.1716490965E+02
      O         0.4195589880E+01         0.2134186160E+01         0.1716471168E+02
      O         0.8228663880E+01         0.6167229880E+01         0.1716521344E+02
      O         0.2148370320E+01         0.1224957477E+02         0.1716503279E+02
      O         0.4195144370E+01         0.6168407940E+01         0.1716578528E+02
      O         0.1424602354E+02         0.4182936260E+01         0.1716262642E+02
      O         0.1021312517E+02         0.4183692450E+01         0.1716323877E+02
      O         0.1225981144E+02         0.2134216370E+01         0.1716057223E+02
      O         0.1424523587E+02         0.1225176983E+02         0.1716234618E+02
      O         0.1628776300E+00         0.6166774820E+01         0.1716464854E+02
      O         0.1226041460E+02         0.1423552112E+02         0.1716045443E+02
      O         0.6180970600E+01         0.1224907052E+02         0.1716538992E+02
      O         0.4196410570E+01         0.1423094710E+02         0.1716434326E+02
      O         0.2148213420E+01         0.4184597580E+01         0.1716566992E+02
      O         0.1226114608E+02         0.6166173350E+01         0.1716438701E+02
      O         0.1424710889E+02         0.1512062100E+00         0.1716379429E+02
      O         0.6131337090E+01         0.2098232000E+01         0.1919017400E+02
      O         0.2098542650E+01         0.2098046830E+01         0.1919017937E+02
      O         0.6131112470E+01         0.6130945490E+01         0.1919024961E+02
      O         0.2098117180E+01         0.1419621364E+02         0.1919026120E+02
      O         0.6131019820E+01         0.1016347672E+02         0.1919028800E+02
      O         0.1419650236E+02         0.2097884620E+01         0.1919029389E+02
      O         0.1016374775E+02         0.2097766480E+01         0.1919030651E+02
      O         0.2098595520E+01         0.1016375998E+02         0.1919032497E+02
      O         0.1419640047E+02         0.6130766900E+01         0.1919036349E+02
      O         0.1419640804E+02         0.1016331420E+02         0.1919036804E+02
      O         0.6131216150E+01         0.1419638501E+02         0.1919036995E+02
      O         0.2098388470E+01         0.6130842540E+01         0.1919038635E+02
      O         0.1016334208E+02         0.1016318971E+02         0.1919040044E+02
      O         0.1016380685E+02         0.6130907980E+01         0.1919040487E+02
      O         0.1016372201E+02         0.1419604467E+02         0.1919041286E+02
      O         0.1419633828E+02         0.1419601283E+02         0.1919044845E+02
     Ba         0.8154002620E+01         0.8808330000E-01         0.1925431453E+02
     Ba         0.8840522000E-01         0.8153658420E+01         0.1925432829E+02
     Ba         0.8153892090E+01         0.8153532050E+01         0.1925435282E+02
     Ba         0.4121203080E+01         0.1218629858E+02         0.1925441736E+02
     Ba         0.8827816000E-01         0.8807790000E-01         0.1925441768E+02
     Ba         0.4121091560E+01         0.8798712000E-01         0.1925442256E+02
     Ba         0.1218644212E+02         0.8153530050E+01         0.1925442775E+02
     Ba         0.1218649732E+02         0.8795246000E-01         0.1925442793E+02
     Ba         0.4120930330E+01         0.8153608850E+01         0.1925447412E+02
     Ba         0.8153953740E+01         0.4120844720E+01         0.1925449205E+02
     Ba         0.1218647446E+02         0.4120726300E+01         0.1925457986E+02
     Ba         0.8824437000E-01         0.1218631032E+02         0.1925460361E+02
     Ba         0.8153818930E+01         0.1218622286E+02         0.1925464366E+02
     Ba         0.4121123670E+01         0.4120866650E+01         0.1925474038E+02
     Ba         0.8832484000E-01         0.4120714320E+01         0.1925476118E+02
     Ba         0.1218652578E+02         0.1218609163E+02         0.1925476179E+02
     Ti         0.6225850140E+01         0.6225645050E+01         0.2109356307E+02
     Ti         0.2193308880E+01         0.2192648060E+01         0.2109357102E+02
     Ti         0.6225845610E+01         0.1025824946E+02         0.2109362393E+02
     Ti         0.1429128580E+02         0.6225586050E+01         0.2109367381E+02
     Ti         0.6225818580E+01         0.1429118282E+02         0.2109370389E+02
     Ti         0.1025851350E+02         0.1025828667E+02         0.2109371439E+02
     Ti         0.1429119896E+02         0.1429113352E+02         0.2109381288E+02
     Ti         0.2193142510E+01         0.6225627120E+01         0.2109381389E+02
     Ti         0.6225898420E+01         0.2192920710E+01         0.2109396455E+02
     Ti         0.2193043490E+01         0.1429122179E+02         0.2109399842E+02
     Ti         0.1025866035E+02         0.2192821600E+01         0.2109402195E+02
     Ti         0.1025866046E+02         0.6225680830E+01         0.2109407058E+02
     Ti         0.1429140236E+02         0.2192789910E+01         0.2109411907E+02
     Ti         0.1429148842E+02         0.1025818657E+02         0.2109412607E+02
     Ti         0.2193210750E+01         0.1025856766E+02         0.2109414630E+02
     Ti         0.1025863665E+02         0.1429111713E+02         0.2109419397E+02
      O         0.2033093080E+01         0.1609943859E+02         0.2121771323E+02
      O         0.1206670402E+02         0.1009795328E+02         0.2121777563E+02
      O         0.1413108740E+02         0.1609933416E+02         0.2121780346E+02
      O         0.6065634190E+01         0.1609941759E+02         0.2121785092E+02
      O         0.4001508410E+01         0.2032645170E+01         0.2121785347E+02
      O         0.6065440430E+01         0.8033779190E+01         0.2121786766E+02
      O         0.1009847980E+02         0.4000901130E+01         0.2121787955E+02
      O         0.1206680141E+02         0.2032600720E+01         0.2121788916E+02
      O         0.6065598280E+01         0.4001045960E+01         0.2121793393E+02
      O         0.4001143630E+01         0.1413104979E+02         0.2121794021E+02
      O         0.1609957030E+02         0.2032805700E+01         0.2121794919E+02
      O         0.2032937800E+01         0.1206672398E+02         0.2121795262E+02
      O         0.2033044550E+01         0.8033808420E+01         0.2121797511E+02
      O         0.1609970121E+02         0.1009824504E+02         0.2121797556E+02
      O         0.8033972920E+01         0.6065504760E+01         0.2121797972E+02
      O         0.2033304460E+01         0.4000899360E+01         0.2121798348E+02
      O         0.1206681690E+02         0.6065352840E+01         0.2121798812E+02
      O         0.6065791820E+01         0.1206649717E+02         0.2121798883E+02
      O         0.1206680819E+02         0.1413083785E+02         0.2121799933E+02
      O         0.1009840793E+02         0.1609920970E+02         0.2121800727E+02
      O         0.1413109076E+02         0.4000939780E+01         0.2121800928E+02
      O         0.1609955700E+02         0.6065462740E+01         0.2121801486E+02
      O         0.8033967870E+01         0.1009803430E+02         0.2121803256E+02
      O         0.8034004730E+01         0.2032725850E+01         0.2121803430E+02
      O         0.1413113022E+02         0.8033769510E+01         0.2121803700E+02
      O         0.1009851328E+02         0.1206655048E+02         0.2121805648E+02
      O         0.1609945118E+02         0.1413113042E+02         0.2121808474E+02
      O         0.8033931690E+01         0.1413095914E+02         0.2121808569E+02
      O         0.1413108383E+02         0.1206626542E+02         0.2121809263E+02
      O         0.1009846294E+02         0.8033731050E+01         0.2121816698E+02
      O         0.4001304240E+01         0.6065570290E+01         0.2121819673E+02
      O         0.4001281140E+01         0.1009842618E+02         0.2121824439E+02
  211
  
      H         0.1209924016E+02         0.1717996850E+01         0.9852526970E+01
      H         0.1213364904E+02         0.2416626460E+01         0.1123050135E+02
      O         0.1209818702E+02         0.2599900580E+01         0.1026257338E+02
      O         0.1206670381E+02         0.2024019380E+01         0.1307283572E+02
      O         0.1208999149E+02         0.1008293998E+02         0.1311691006E+02
      O         0.1011984793E+02         0.8019413230E+01         0.1310362488E+02
      O         0.1208872841E+02         0.6049221560E+01         0.1312255310E+02
      O         0.1010626263E+02         0.3996452040E+01         0.1313113818E+02
      O         0.1208839169E+02         0.1411628519E+02         0.1311365440E+02
      O         0.1415298096E+02         0.1205283428E+02         0.1309993840E+02
      O         0.2053866400E+01         0.1205255131E+02         0.1310318323E+02
      O         0.1612197917E+02         0.1008281315E+02         0.1311621221E+02
      O         0.4022526040E+01         0.1008282437E+02         0.1311629258E+02
      O         0.1414972700E+02         0.1608734621E+02         0.1309029256E+02
      O         0.4027283270E+01         0.2017849930E+01         0.1311950717E+02
      O         0.8055611900E+01         0.1008274101E+02         0.1311669311E+02
      O         0.8060816150E+01         0.2018473770E+01         0.1311970688E+02
      O         0.2053919760E+01         0.8018171230E+01         0.1310342733E+02
      O         0.1011899156E+02         0.1205053581E+02         0.1310038217E+02
      O         0.6085821610E+01         0.8019384270E+01         0.1310257485E+02
      O         0.2055580690E+01         0.3985487080E+01         0.1310622435E+02
      O         0.1415315152E+02         0.8017455970E+01         0.1310230533E+02
      O         0.6086299020E+01         0.1205191748E+02         0.1310264724E+02
      O         0.1011233259E+02         0.1607995717E+02         0.1310081731E+02
      O         0.6086670550E+01         0.3984700460E+01         0.1310556759E+02
      O         0.8055028610E+01         0.1411441974E+02         0.1311605392E+02
      O         0.4023653860E+01         0.1411605637E+02         0.1311629034E+02
      O         0.1612792276E+02         0.2017715110E+01         0.1311537998E+02
      O         0.8054162980E+01         0.6050476140E+01         0.1312024123E+02
      O         0.2054956650E+01         0.1608629925E+02         0.1310555092E+02
      O         0.1415491670E+02         0.3984677680E+01         0.1311044679E+02
      O         0.6088015660E+01         0.1608631996E+02         0.1310647172E+02
      O         0.1612181264E+02         0.1411662147E+02         0.1311562332E+02
      O         0.4022904950E+01         0.6049323170E+01         0.1311821945E+02
      O         0.1612245997E+02         0.6049431480E+01         0.1311943940E+02
     Ti         0.1027680014E+02         0.6210730330E+01         0.1323062403E+02
     Ti         0.1027659780E+02         0.1024252316E+02         0.1323003537E+02
     Ti         0.1023323279E+02         0.2190874950E+01         0.1322944389E+02
     Ti         0.1430840849E+02         0.1024397069E+02         0.1322962858E+02
     Ti         0.1430809137E+02         0.1427741125E+02         0.1322750426E+02
     Ti         0.1027250547E+02         0.1427596428E+02         0.1322969228E+02
     Ti         0.2208945270E+01         0.1024426855E+02         0.1323104878E+02
     Ti         0.2212391600E+01         0.2177991860E+01         0.1323191184E+02
     Ti         0.1432035167E+02         0.2177161860E+01         0.1321797965E+02
     Ti         0.6242569050E+01         0.1024381451E+02         0.1323078016E+02
     Ti         0.2210131290E+01         0.1427770232E+02         0.1323097400E+02
     Ti         0.6242138420E+01         0.1427757393E+02         0.1323121740E+02
     Ti         0.1430859239E+02         0.6208739830E+01         0.1322688972E+02
     Ti         0.6242034150E+01         0.6211800000E+01         0.1323126125E+02
     Ti         0.6237715940E+01         0.2179682330E+01         0.1323501852E+02
     Ti         0.2208894260E+01         0.6210086060E+01         0.1323162671E+02
     Ba         0.8167381430E+01         0.8139926760E+01         0.1506531424E+02
     Ba         0.1220050395E+02         0.8138866110E+01         0.1506556361E+02
     Ba         0.1219866681E+02         0.4099992260E+01         0.1506252898E+02
     Ba         0.8167519680E+01         0.1217459924E+02         0.1506562415E+02
     Ba         0.1220003861E+02         0.1217687915E+02         0.1506489366E+02
     Ba         0.4132881490E+01         0.1217542364E+02         0.1506584793E+02
     Ba         0.8165650680E+01         0.7357859000E-01         0.1507218561E+02
     Ba         0.4131896060E+01         0.8140098800E+01         0.1506521145E+02
     Ba         0.8159563730E+01         0.4112709310E+01         0.1507990022E+02
     Ba         0.4133119570E+01         0.7549745000E-01         0.1507067758E+02
     Ba         0.1219613528E+02         0.8313463000E-01         0.1505436894E+02
     Ba         0.9940368000E-01         0.1217662515E+02         0.1506655484E+02
     Ba         0.4131193440E+01         0.4107218480E+01         0.1507099732E+02
     Ba         0.9859137000E-01         0.8139068370E+01         0.1506560036E+02
     Ba         0.9965377000E-01         0.7571605000E-01         0.1507015781E+02
     Ba         0.9860886000E-01         0.4105237850E+01         0.1506998612E+02
      O         0.1420691352E+02         0.1015245803E+02         0.1513086606E+02
      O         0.1017073722E+02         0.2081688070E+01         0.1512479359E+02
      O         0.1017354383E+02         0.6123909700E+01         0.1513623922E+02
      O         0.1017442034E+02         0.1015209803E+02         0.1513189217E+02
      O         0.2107956160E+01         0.1015217204E+02         0.1513262695E+02
      O         0.1420465524E+02         0.1418764880E+02         0.1512705080E+02
      O         0.1017252802E+02         0.1418350817E+02         0.1513178528E+02
      O         0.6140956100E+01         0.1015194860E+02         0.1513267115E+02
      O         0.2108735980E+01         0.2085488740E+01         0.1513256202E+02
      O         0.1419968669E+02         0.2079450210E+01         0.1512162848E+02
      O         0.6140785730E+01         0.1418362945E+02         0.1513258195E+02
      O         0.6140134630E+01         0.2086816080E+01         0.1513221896E+02
      O         0.6138844170E+01         0.6120355920E+01         0.1513428775E+02
      O         0.1420598216E+02         0.6118723010E+01         0.1513199826E+02
      O         0.2108490460E+01         0.1418404551E+02         0.1513185358E+02
      O         0.2108062600E+01         0.6119274990E+01         0.1513416407E+02
     Ti         0.1007897768E+02         0.1006673273E+02         0.1716095009E+02
     Ti         0.6045765230E+01         0.1006665144E+02         0.1716086397E+02
     Ti         0.1007984592E+02         0.2002060790E+01         0.1716632286E+02
     Ti         0.2012455620E+01         0.1006686401E+02         0.1716137800E+02
     Ti         0.6046184870E+01         0.2001794890E+01         0.1716640378E+02
     Ti         0.1007942474E+02         0.6035182910E+01         0.1715994899E+02
     Ti         0.1411103625E+02         0.1006687921E+02         0.1716143799E+02
     Ti         0.1008036935E+02         0.1409915732E+02         0.1716138045E+02
     Ti         0.6044149130E+01         0.6036695610E+01         0.1716312483E+02
     Ti         0.2013877500E+01         0.2001497390E+01         0.1716366193E+02
     Ti         0.2014042180E+01         0.1409898565E+02         0.1716295638E+02
     Ti         0.6047332950E+01         0.1409817197E+02         0.1716273449E+02
     Ti         0.2012043730E+01         0.6034764260E+01         0.1716239002E+02
     Ti         0.1411006790E+02         0.6033394940E+01         0.1715960677E+02
     Ti         0.1411040818E+02         0.1410165977E+02         0.1716161577E+02
     Ti         0.1411133317E+02         0.2001005090E+01         0.1716059169E+02
      O         0.8229327020E+01         0.1019884699E+02         0.1716351497E+02
      O         0.8228797360E+01         0.2135061120E+01         0.1716351759E+02
      O         0.1021347945E+02         0.8217649670E+01         0.1716593260E+02
      O         0.1021378624E+02         0.1530088400E+00         0.1716385810E+02
      O         0.2146710750E+01         0.8217420380E+01         0.1716526433E+02
      O         0.2148686690E+01         0.1516190800E+00         0.1716527948E+02
      O         0.1424545282E+02         0.8217546300E+01         0.1716403341E+02
      O         0.6181125770E+01         0.1522993500E+00         0.1716562056E+02
      O         0.1620103500E+00         0.2133902790E+01         0.1716134112E+02
      O         0.4196367890E+01         0.1019846743E+02         0.1716384789E+02
      O         0.8228860370E+01         0.1423145795E+02         0.1716427083E+02
      O         0.6178395210E+01         0.4185269460E+01         0.1716689724E+02
      O         0.1628925200E+00         0.1019983697E+02         0.1716409518E+02
      O         0.1632828200E+00         0.1423208271E+02         0.1716247093E+02
      O         0.6180052310E+01         0.8216806480E+01         0.1716559451E+02
      O         0.1226178464E+02         0.1019967926E+02         0.1716377930E+02
      O         0.1021450274E+02         0.1225014909E+02         0.1716497529E+02
      O         0.4195602720E+01         0.2134032650E+01         0.1716477106E+02
      O         0.8228757310E+01         0.6167064010E+01         0.1716526486E+02
      O         0.2148249370E+01         0.1224981662E+02         0.1716509644E+02
      O         0.4195090460E+01         0.6168262620E+01         0.1716584033E+02
      O         0.1424590143E+02         0.4182648330E+01         0.1716268917E+02
      O         0.1021311950E+02         0.4183426680E+01         0.1716329227E+02
      O         0.1225997903E+02         0.2133990920E+01         0.1716065089E+02
      O         0.1424513410E+02         0.1225208403E+02         0.1716241415E+02
      O         0.1627585500E+00         0.6166586680E+01         0.1716470575E+02
      O         0.1226055672E+02         0.1423555054E+02         0.1716052413E+02
      O         0.6180951780E+01         0.1224929358E+02         0.1716545404E+02
      O         0.4196416350E+01         0.1423101952E+02         0.1716440836E+02
      O         0.2148072660E+01         0.4184320450E+01         0.1716572916E+02
      O         0.1226119273E+02         0.6165963850E+01         0.1716443970E+02
      O         0.1424691360E+02         0.1513888200E+00         0.1716386542E+02
      O         0.6131337090E+01         0.2098232000E+01         0.1919017400E+02
      O         0.2098542650E+01         0.2098046830E+01         0.1919017937E+02
      O         0.6131112470E+01         0.6130945490E+01         0.1919024961E+02
      O         0.2098117180E+01         0.1419621364E+02         0.1919026120E+02
      O         0.6131019820E+01         0.1016347672E+02         0.1919028800E+02
      O         0.1419650236E+02         0.2097884620E+01         0.1919029389E+02
      O         0.1016374775E+02         0.2097766480E+01         0.1919030651E+02
      O         0.2098595520E+01         0.1016375998E+02         0.1919032497E+02
      O         0.1419640047E+02         0.6130766900E+01         0.1919036349E+02
      O         0.1419640804E+02         0.1016331420E+02         0.1919036804E+02
      O         0.6131216150E+01         0.1419638501E+02         0.1919036995E+02
      O         0.2098388470E+01         0.6130842540E+01         0.1919038635E+02